# vtk DataFile Version 2.0 
output test file 
ASCII 
DATASET UNSTRUCTURED_GRID 
POINTS 4141 double
0.000000000000000000e+00 4.000000000000000000e+00 0.000000000000000000e+00
0.000000000000000000e+00 0.000000000000000000e+00 0.000000000000000000e+00
1.000000000000000000e+01 0.000000000000000000e+00 0.000000000000000000e+00
1.000000000000000000e+01 2.000000000000000000e+00 0.000000000000000000e+00
1.000000000000000000e+01 4.000000000000000000e+00 0.000000000000000000e+00
0.000000000000000000e+00 3.899999999999999911e+00 0.000000000000000000e+00
0.000000000000000000e+00 3.799999999999999822e+00 0.000000000000000000e+00
0.000000000000000000e+00 3.700000000000000178e+00 0.000000000000000000e+00
0.000000000000000000e+00 3.600000000000000089e+00 0.000000000000000000e+00
0.000000000000000000e+00 3.500000000000000000e+00 0.000000000000000000e+00
0.000000000000000000e+00 3.399999999999999911e+00 0.000000000000000000e+00
0.000000000000000000e+00 3.299999999999999822e+00 0.000000000000000000e+00
0.000000000000000000e+00 3.200000000000000178e+00 0.000000000000000000e+00
0.000000000000000000e+00 3.100000000000000089e+00 0.000000000000000000e+00
0.000000000000000000e+00 3.000000000000000000e+00 0.000000000000000000e+00
0.000000000000000000e+00 2.899999999999999911e+00 0.000000000000000000e+00
0.000000000000000000e+00 2.799999999999999822e+00 0.000000000000000000e+00
0.000000000000000000e+00 2.700000000000000178e+00 0.000000000000000000e+00
0.000000000000000000e+00 2.600000000000000089e+00 0.000000000000000000e+00
0.000000000000000000e+00 2.500000000000000000e+00 0.000000000000000000e+00
0.000000000000000000e+00 2.399999999999999911e+00 0.000000000000000000e+00
0.000000000000000000e+00 2.299999999999999822e+00 0.000000000000000000e+00
0.000000000000000000e+00 2.200000000000000178e+00 0.000000000000000000e+00
0.000000000000000000e+00 2.100000000000000089e+00 0.000000000000000000e+00
0.000000000000000000e+00 2.000000000000000000e+00 0.000000000000000000e+00
0.000000000000000000e+00 1.899999999999999911e+00 0.000000000000000000e+00
0.000000000000000000e+00 1.800000000000000044e+00 0.000000000000000000e+00
0.000000000000000000e+00 1.699999999999999956e+00 0.000000000000000000e+00
0.000000000000000000e+00 1.600000000000000089e+00 0.000000000000000000e+00
0.000000000000000000e+00 1.500000000000000000e+00 0.000000000000000000e+00
0.000000000000000000e+00 1.399999999999999911e+00 0.000000000000000000e+00
0.000000000000000000e+00 1.300000000000000044e+00 0.000000000000000000e+00
0.000000000000000000e+00 1.199999999999999956e+00 0.000000000000000000e+00
0.000000000000000000e+00 1.100000000000000089e+00 0.000000000000000000e+00
0.000000000000000000e+00 1.000000000000000000e+00 0.000000000000000000e+00
0.000000000000000000e+00 9.000000000000000222e-01 0.000000000000000000e+00
0.000000000000000000e+00 8.000000000000000444e-01 0.000000000000000000e+00
0.000000000000000000e+00 6.999999999999999556e-01 0.000000000000000000e+00
0.000000000000000000e+00 5.999999999999999778e-01 0.000000000000000000e+00
0.000000000000000000e+00 5.000000000000000000e-01 0.000000000000000000e+00
0.000000000000000000e+00 4.000000000000000222e-01 0.000000000000000000e+00
0.000000000000000000e+00 2.999999999999999889e-01 0.000000000000000000e+00
0.000000000000000000e+00 2.000000000000000111e-01 0.000000000000000000e+00
0.000000000000000000e+00 1.000000000000000056e-01 0.000000000000000000e+00
1.000000000000000056e-01 0.000000000000000000e+00 0.000000000000000000e+00
2.000000000000000111e-01 0.000000000000000000e+00 0.000000000000000000e+00
2.999999999999999889e-01 0.000000000000000000e+00 0.000000000000000000e+00
4.000000000000000222e-01 0.000000000000000000e+00 0.000000000000000000e+00
5.000000000000000000e-01 0.000000000000000000e+00 0.000000000000000000e+00
5.999999999999999778e-01 0.000000000000000000e+00 0.000000000000000000e+00
6.999999999999999556e-01 0.000000000000000000e+00 0.000000000000000000e+00
8.000000000000000444e-01 0.000000000000000000e+00 0.000000000000000000e+00
9.000000000000000222e-01 0.000000000000000000e+00 0.000000000000000000e+00
1.000000000000000000e+00 0.000000000000000000e+00 0.000000000000000000e+00
1.100000000000000089e+00 0.000000000000000000e+00 0.000000000000000000e+00
1.199999999999999956e+00 0.000000000000000000e+00 0.000000000000000000e+00
1.300000000000000044e+00 0.000000000000000000e+00 0.000000000000000000e+00
1.399999999999999911e+00 0.000000000000000000e+00 0.000000000000000000e+00
1.500000000000000000e+00 0.000000000000000000e+00 0.000000000000000000e+00
1.600000000000000089e+00 0.000000000000000000e+00 0.000000000000000000e+00
1.699999999999999956e+00 0.000000000000000000e+00 0.000000000000000000e+00
1.800000000000000044e+00 0.000000000000000000e+00 0.000000000000000000e+00
1.899999999999999911e+00 0.000000000000000000e+00 0.000000000000000000e+00
2.000000000000000000e+00 0.000000000000000000e+00 0.000000000000000000e+00
2.100000000000000089e+00 0.000000000000000000e+00 0.000000000000000000e+00
2.200000000000000178e+00 0.000000000000000000e+00 0.000000000000000000e+00
2.299999999999999822e+00 0.000000000000000000e+00 0.000000000000000000e+00
2.399999999999999911e+00 0.000000000000000000e+00 0.000000000000000000e+00
2.500000000000000000e+00 0.000000000000000000e+00 0.000000000000000000e+00
2.600000000000000089e+00 0.000000000000000000e+00 0.000000000000000000e+00
2.700000000000000178e+00 0.000000000000000000e+00 0.000000000000000000e+00
2.799999999999999822e+00 0.000000000000000000e+00 0.000000000000000000e+00
2.899999999999999911e+00 0.000000000000000000e+00 0.000000000000000000e+00
3.000000000000000000e+00 0.000000000000000000e+00 0.000000000000000000e+00
3.100000000000000089e+00 0.000000000000000000e+00 0.000000000000000000e+00
3.200000000000000178e+00 0.000000000000000000e+00 0.000000000000000000e+00
3.299999999999999822e+00 0.000000000000000000e+00 0.000000000000000000e+00
3.399999999999999911e+00 0.000000000000000000e+00 0.000000000000000000e+00
3.500000000000000000e+00 0.000000000000000000e+00 0.000000000000000000e+00
3.600000000000000089e+00 0.000000000000000000e+00 0.000000000000000000e+00
3.700000000000000178e+00 0.000000000000000000e+00 0.000000000000000000e+00
3.799999999999999822e+00 0.000000000000000000e+00 0.000000000000000000e+00
3.899999999999999911e+00 0.000000000000000000e+00 0.000000000000000000e+00
4.000000000000000000e+00 0.000000000000000000e+00 0.000000000000000000e+00
4.099999999999999645e+00 0.000000000000000000e+00 0.000000000000000000e+00
4.200000000000000178e+00 0.000000000000000000e+00 0.000000000000000000e+00
4.299999999999999822e+00 0.000000000000000000e+00 0.000000000000000000e+00
4.400000000000000355e+00 0.000000000000000000e+00 0.000000000000000000e+00
4.500000000000000000e+00 0.000000000000000000e+00 0.000000000000000000e+00
4.599999999999999645e+00 0.000000000000000000e+00 0.000000000000000000e+00
4.700000000000000178e+00 0.000000000000000000e+00 0.000000000000000000e+00
4.799999999999999822e+00 0.000000000000000000e+00 0.000000000000000000e+00
4.900000000000000355e+00 0.000000000000000000e+00 0.000000000000000000e+00
5.000000000000000000e+00 0.000000000000000000e+00 0.000000000000000000e+00
5.099999999999999645e+00 0.000000000000000000e+00 0.000000000000000000e+00
5.200000000000000178e+00 0.000000000000000000e+00 0.000000000000000000e+00
5.299999999999999822e+00 0.000000000000000000e+00 0.000000000000000000e+00
5.400000000000000355e+00 0.000000000000000000e+00 0.000000000000000000e+00
5.500000000000000000e+00 0.000000000000000000e+00 0.000000000000000000e+00
5.599999999999999645e+00 0.000000000000000000e+00 0.000000000000000000e+00
5.700000000000000178e+00 0.000000000000000000e+00 0.000000000000000000e+00
5.799999999999999822e+00 0.000000000000000000e+00 0.000000000000000000e+00
5.900000000000000355e+00 0.000000000000000000e+00 0.000000000000000000e+00
6.000000000000000000e+00 0.000000000000000000e+00 0.000000000000000000e+00
6.099999999999999645e+00 0.000000000000000000e+00 0.000000000000000000e+00
6.200000000000000178e+00 0.000000000000000000e+00 0.000000000000000000e+00
6.299999999999999822e+00 0.000000000000000000e+00 0.000000000000000000e+00
6.400000000000000355e+00 0.000000000000000000e+00 0.000000000000000000e+00
6.500000000000000000e+00 0.000000000000000000e+00 0.000000000000000000e+00
6.599999999999999645e+00 0.000000000000000000e+00 0.000000000000000000e+00
6.700000000000000178e+00 0.000000000000000000e+00 0.000000000000000000e+00
6.799999999999999822e+00 0.000000000000000000e+00 0.000000000000000000e+00
6.900000000000000355e+00 0.000000000000000000e+00 0.000000000000000000e+00
7.000000000000000000e+00 0.000000000000000000e+00 0.000000000000000000e+00
7.099999999999999645e+00 0.000000000000000000e+00 0.000000000000000000e+00
7.200000000000000178e+00 0.000000000000000000e+00 0.000000000000000000e+00
7.299999999999999822e+00 0.000000000000000000e+00 0.000000000000000000e+00
7.400000000000000355e+00 0.000000000000000000e+00 0.000000000000000000e+00
7.500000000000000000e+00 0.000000000000000000e+00 0.000000000000000000e+00
7.599999999999999645e+00 0.000000000000000000e+00 0.000000000000000000e+00
7.700000000000000178e+00 0.000000000000000000e+00 0.000000000000000000e+00
7.799999999999999822e+00 0.000000000000000000e+00 0.000000000000000000e+00
7.900000000000000355e+00 0.000000000000000000e+00 0.000000000000000000e+00
8.000000000000000000e+00 0.000000000000000000e+00 0.000000000000000000e+00
8.099999999999999645e+00 0.000000000000000000e+00 0.000000000000000000e+00
8.199999999999999289e+00 0.000000000000000000e+00 0.000000000000000000e+00
8.300000000000000711e+00 0.000000000000000000e+00 0.000000000000000000e+00
8.400000000000000355e+00 0.000000000000000000e+00 0.000000000000000000e+00
8.500000000000000000e+00 0.000000000000000000e+00 0.000000000000000000e+00
8.599999999999999645e+00 0.000000000000000000e+00 0.000000000000000000e+00
8.699999999999999289e+00 0.000000000000000000e+00 0.000000000000000000e+00
8.800000000000000711e+00 0.000000000000000000e+00 0.000000000000000000e+00
[...]
CELL_DATA 4000
SCALARS Element_Data double 1
LOOKUP_TABLE default
2.726381495106098285e-01
4.914268159018631010e-03
2.690855551990067873e-01
7.271810727581050626e-01
3.846051939196083388e-04
3.840859929443797604e-04
3.843040259809270710e-04
3.845252784818146302e-04
7.249892625598505225e-01
2.734569459239565292e-01
4.887317163000642027e-03
2.405614781517023404e-01
3.865538480210212267e-04
3.852439977236409669e-04
3.852757378027692648e-04
3.856721623227844353e-04
3.843544346645316897e-04
3.855878212493655567e-04
3.855655777206216527e-04
3.840069616994453892e-04
3.852399158565157915e-04
3.855878387064013194e-04
3.855878420866569760e-04
3.852288000848769233e-04
1.309387677152132889e-01
4.186406149585482936e-04
4.299142892026569301e-04
1.429765478004776103e-01
3.818657925801980367e-04
3.825500860911017513e-04
3.845551192839246095e-04
3.834208717335598881e-04
3.852756129280796287e-04
3.845354781511483178e-04
3.852755996788070187e-04
3.855775663263377793e-04
3.855768209908400860e-04
3.852511015317443038e-04
3.844433669271094564e-04
3.849031848625472240e-04
3.852288409646977192e-04
3.841279373580896972e-04
3.852407524938640591e-04
3.849276819490463552e-04
9.997750545123978982e-01
9.997185766773263316e-01
9.950883741124096904e-01
9.997604978852658864e-01
3.837799958211332899e-04
3.848808990591509539e-04
3.834431911133525414e-04
3.837799908366376720e-04
3.891555837958087026e-04
3.847307318724624932e-04
3.894858206539945369e-04
4.859605848032019955e-03
3.872370770099253659e-04
3.980398304254090898e-04
4.254039197822609419e-02
1.658228845924350188e-03
9.512203488413357721e-01
9.982934732546737688e-01
9.997556879447597744e-01
9.997269862380867567e-01
3.845560926092423054e-04
3.837689571258574546e-04
3.834432476390620560e-04
3.837935030711412798e-04
3.831220175644095170e-04
3.830745568053129692e-04
3.831228327810187414e-04
3.831555832986837003e-04
3.993830920631719268e-04
3.921821172305970629e-04
3.902611992030851620e-04
4.744618702688199220e-03
8.553029093797752669e-01
5.783966839944674199e-01
1.325399098527004771e-01
4.009799331443114623e-01
3.857388672575606868e-04
3.844644394355001380e-04
3.842375777576674469e-04
3.838011422175732963e-04
9.997980573101121760e-01
9.965860969203497177e-01
7.652795749014053017e-01
9.948163932815311528e-01
3.837698225678134556e-04
3.846155140667635933e-04
3.842026792833365487e-04
3.845806537586168839e-04
3.833247054952697796e-04
3.832312329782625948e-04
3.836650713342791888e-04
3.889569991404715106e-04
1.432898094257088195e-01
1.432937789848465204e-01
8.571130740636887513e-01
8.571080878742726172e-01
9.968396406511589314e-01
7.743863269057724708e-01
4.495723494345212901e-01
9.132394659659189839e-01
3.852431528896806362e-04
3.839221213802253979e-04
3.852653720597823753e-04
3.852297142653824161e-04
3.832248037938151873e-04
3.838871738787570610e-04
3.845922414449879788e-04
3.835629142085480005e-04
3.837800493135883843e-04
3.837689374157215332e-04
3.845908814653760345e-04
3.852296632966446680e-04
2.508080359867819187e-01
4.989850990161166268e-03
2.728004535587030821e-01
7.266775818776117779e-01
3.832264006469484176e-04
3.851509635201744641e-04
3.831210156902690642e-04
3.831090544412717159e-04
9.996468024664743046e-01
9.995352828797682276e-01
9.797555447833394826e-01
9.987913535172735502e-01
3.831907828322157132e-04
3.850793628350888823e-04
3.831504257161997217e-04
3.830975606178351357e-04
7.698719294381597411e-01
9.938843996647687140e-01
9.997078749948299370e-01
9.966036022611832745e-01
3.852399777300053048e-04
3.855768166918863691e-04
3.852511110159420734e-04
3.841168474600178983e-04
3.978071127269543119e-04
3.940721099791863794e-04
5.666439518903843703e-02
1.403114284705196391e-01
2.829954002653781164e-01
1.545258851650279097e-01
8.521680823190560528e-01
8.714666385220610767e-01
3.832343846329338850e-04
3.835770334079520406e-04
3.859087785509738720e-04
3.842175416777733393e-04
9.968328765800360536e-01
9.997844374710863624e-01
9.997960150971815230e-01
9.998078050705075936e-01
3.855509786961243261e-04
3.846959719011743971e-04
3.834462454845111515e-04
3.831347694207549548e-04
3.849388308129622432e-04
3.849172460343043404e-04
3.848892818987181483e-04
3.842020815743497518e-04
3.956485220755625947e-04
3.887825030230778953e-04
3.874796831624474375e-04
3.860368850600387415e-04
8.613068431588888352e-01
2.767242368220294568e-01
7.218570163699762343e-01
9.949058149542993057e-01
3.838480009846065495e-04
3.835155079496764779e-04
3.831588016643373232e-04
3.843294584788435803e-04
3.837688220867802036e-04
3.837799450346954092e-04
3.841167731902566046e-04
3.849030755468604045e-04
3.847927421171975669e-04
3.968175310941627807e-04
2.389895346895924266e-03
3.870488257296962327e-04
9.986536975346539391e-01
9.991890343599107993e-01
9.996412874245229618e-01
9.996365498144206274e-01
9.995827429978811907e-01
9.995923788199048143e-01
9.996510486149038366e-01
9.996783199532662811e-01
3.911921842512130327e-04
4.479544312466007296e-03
3.909197347088669760e-04
3.841672580352139470e-04
3.832308587683845038e-04
3.820208716892233578e-04
3.823359323098388454e-04
3.832665421578256861e-04
9.998085196148821518e-01
9.997233835260392887e-01
9.998591713342649401e-01
9.998618183500779244e-01
9.493972580037047804e-01
8.594415811846306541e-01
9.997208576413361136e-01
9.997512814127895719e-01
8.599321576772617215e-01
9.998084599079044565e-01
9.985005698138824659e-01
8.211664168594423607e-01
4.041291356511711019e-04
8.517619030479578468e-02
3.100151322217180230e-03
3.906048043976228005e-04
8.565915355580193680e-01
8.566479999936676970e-01
1.429370837538200267e-01
1.459746570765332319e-01
2.619807563731205713e-01
7.262177362019835991e-01
2.723500758531324228e-01
5.197678490651487168e-03
3.831228644016937326e-04
3.831809517820794204e-04
3.831220460970763604e-04
3.830737778034044709e-04
7.216064462051776651e-01
2.725704214721495489e-01
4.803077524322704392e-03
2.287812006356431671e-01
9.997842270108816543e-01
9.997623328388181019e-01
9.997885540502096102e-01
9.997650480461864886e-01
2.200723988398536543e-03
5.827912906707744672e-02
3.930311301425270295e-04
3.878852025344262187e-04
9.222187503405047115e-01
4.794991763343944280e-01
2.031677242692160879e-01
8.357175003035253180e-01
3.852399622970328051e-04
3.862163019972080467e-04
3.867837388907096035e-04
3.852185497652590301e-04
2.666919501564806727e-01
5.072748791120281452e-03
3.957963563939737570e-04
4.676511351943760976e-03
3.852399034873015232e-04
3.852398912605108712e-04
3.855878343793418296e-04
3.855767285960285035e-04
3.852510283852734899e-04
3.852533447650664908e-04
3.852410576988327790e-04
3.855767195377860120e-04
4.361504219578787975e-04
4.418437931461395097e-04
1.433017887576076566e-01
1.432935640827636137e-01
4.042407584385129403e-04
3.901619570785032354e-04
4.946056021338142081e-03
1.382912890834208375e-01
9.994277958254829120e-01
9.874862292620039117e-01
7.516347834012485629e-01
8.471769650531244533e-01
4.550150422345783929e-01
1.957722185670780213e-01
8.342048501707083341e-01
9.148752618852731278e-01
2.746386118683640243e-01
7.277124337668229304e-01
9.952857387487284990e-01
7.727288076339395850e-01
7.577556921576590332e-01
9.807291993433502331e-01
9.989194886495409431e-01
9.758955446495706232e-01
3.821887603924997733e-04
3.830737841175164103e-04
3.830729592920192276e-04
3.821986340659508288e-04
8.972387908531138656e-01
7.237658637826839270e-01
3.176555473301497234e-01
5.370556599323547120e-01
3.830729537269756302e-04
3.830974778799560877e-04
3.830737650489035107e-04
3.830737744390987835e-04
7.768754082472265621e-01
1.405666584799390995e-01
5.867962986140512482e-02
4.563838419251253220e-01
3.835392595569071241e-04
3.838179681757471489e-04
3.845560165467241508e-04
3.852430896816675396e-04
3.855878234847760354e-04
3.840548073113988765e-04
3.840077081408022476e-04
3.855658697305144812e-04
2.064008909568088301e-01
8.442551784687882810e-01
9.251664333724264333e-01
4.893427452845977577e-01
7.836494392983512913e-01
9.972414933819920835e-01
9.997961037419488273e-01
8.610613104905159298e-01
3.837672462514868398e-04
3.831858826803320630e-04
3.834427193209977917e-04
3.831516604757157635e-04
9.283731120866704767e-02
3.366454290849979578e-03
2.311708640726139463e-01
5.702375105542442091e-01
3.904898029245502467e-04
3.834633290200976908e-04
3.838335621857420061e-04
4.029655841597258831e-04
7.390931107158521529e-01
3.303263579827577234e-01
8.775018318206402324e-01
9.958594323139350335e-01
2.805121910480431469e-01
8.603565395173785602e-01
9.580750104937839629e-01
6.986270571000831042e-01
4.389116427777322985e-04
4.381367541494376083e-04
3.855120520363458452e-04
3.854871253711720526e-04
3.849328795519377862e-04
3.835856091413530075e-04
3.859878777648747985e-04
3.910669899804738179e-04
3.927776297486564039e-04
1.392340427416965693e-03
3.407033049367976657e-02
3.933251563305273325e-04
1.431984391073067853e-01
1.432001002845684767e-01
4.192257630405852101e-04
4.161868261317019230e-04
3.855656164131134088e-04
3.849031079762927536e-04
3.840945805708187682e-04
3.849039275072574915e-04
8.153977390217719279e-01
8.447170598521170914e-01
9.992356558065835781e-01
9.874339883520869554e-01
9.997569473650652627e-01
9.997806224292218324e-01
9.997897255210907996e-01
9.997677217808906835e-01
9.997396047996607304e-01
9.997613334585279121e-01
9.997116255053394296e-01
9.998048331220207308e-01
9.995552524512861803e-01
9.951362407573349778e-01
7.277823623774745121e-01
9.951716086070955258e-01
3.831236637279283831e-04
3.832411351259963693e-04
3.832054913887448133e-04
3.830983135685183836e-04
7.636326774875351608e-01
2.737777744807518565e-01
7.254865820329641224e-01
9.950888421066121925e-01
9.983345318856957640e-01
9.536525993602283924e-01
5.898822980491218448e-01
8.153043372403960820e-01
3.836108814264366077e-04
3.873061034116265602e-04
3.832739181974510159e-04
3.832545669686766789e-04
3.849599306635449660e-04
3.873611227512206668e-04
3.975921144262162211e-04
3.895088759016782261e-04
2.993280340393138662e-03
4.028891601997667258e-04
1.211064686637786242e-01
2.194241476206096608e-01
3.843013348288615554e-04
3.837956804759237446e-04
3.845683944096747959e-04
3.841864172607559061e-04
3.832553817470509515e-04
3.832316478670286784e-04
3.832561702223334123e-04
3.832561721398695834e-04
9.632584889499062886e-01
6.206613995195200406e-01
9.059092557837050697e-01
9.986406520607569171e-01
3.830982908551507928e-04
3.831792859893023745e-04
3.819954444036676648e-04
3.822140706657565818e-04
9.265775978132314572e-01
9.998081220404320124e-01
9.997422694248381259e-01
9.122214329144159306e-01
8.966600417600908979e-02
5.592085151701366996e-01
2.288133328551343604e-01
3.476222660803209626e-03
4.645238046910624792e-04
3.841388759107003761e-04
3.880515094520904196e-04
2.406545944173207885e-03
8.419072965532701236e-01
6.644527792992017678e-01
9.776703323286848324e-01
9.991699454528694124e-01
1.381193387053461508e-01
5.174036146183426388e-03
3.999838308851025510e-04
4.082154858372929974e-04
3.866879447034441406e-04
3.903021492706341337e-04
3.865841342697904737e-04
3.856844346321153076e-04
9.998703786562481710e-01
9.998538087252424322e-01
9.998542641952208321e-01
9.998696654616207047e-01
4.940447551358027531e-03
3.939903486015064807e-04
3.404985896987863022e-03
2.285377381217164605e-01
2.706826801002990557e-01
4.847303474688278123e-03
2.717130501800381071e-01
7.257097512567740605e-01
3.834698055898447212e-04
3.835027711949418657e-04
3.845925176682638393e-04
3.838403066586945156e-04
2.024284494773026261e-03
3.963597371100881272e-04
3.836079397682290036e-04
3.867581533486690623e-04
9.996372573978768994e-01
9.996472299257682659e-01
9.997593597782367114e-01
9.997505079538876460e-01
8.607940012018466813e-01
9.750736247700086956e-01
9.994496803819639119e-01
9.997100051599189241e-01
3.907104974473723613e-04
3.684012484460580774e-04
4.905437979208547052e-03
3.996385776166277710e-04
2.392487532313871124e-01
1.375401483629355992e-01
4.101024811071489907e-04
3.640830715771706944e-03
3.826243343686485743e-04
3.845369482594829182e-04
3.838847936464096313e-04
3.820663779990891395e-04
4.674869220217578447e-03
2.701886427721197359e-01
2.769874179500759204e-01
5.079135033830626915e-03
8.571133055382051946e-01
8.571163047541694446e-01
9.998140210282571161e-01
9.998150679540767083e-01
8.571343568286031722e-01
8.571390108440543054e-01
1.432993794064620352e-01
1.433146904163123958e-01
9.983670313236642224e-01
9.515233798865158077e-01
5.833722939947441066e-01
8.639989754303688541e-01
5.100979526069822530e-03
1.382806821240686324e-01
4.094510757330710937e-04
4.007515943633753290e-04
7.866846336473075629e-01
9.973713981662221117e-01
9.997999182914713012e-01
8.611632671608009382e-01
9.168062624028147090e-01
9.997273574398547469e-01
9.947981989967158434e-01
7.234209311885294591e-01
8.655290122866977631e-01
4.815797615894914507e-01
7.901065391704131802e-01
9.973777563991498285e-01
3.835597753710255826e-04
3.887695607814652273e-04
3.961692285090772010e-04
3.837608116600220421e-04
3.881881525548715444e-04
3.866774270273876102e-04
3.972489508281017482e-04
4.072396421119710654e-04
9.996260105098829785e-01
9.997410687604573187e-01
9.997311416556831087e-01
9.996134554027835684e-01
3.849056751223922917e-04
3.863778008649567395e-04
3.890491230439418785e-04
3.848956414675144756e-04
9.997805014467100460e-01
9.997447374552561605e-01
9.972407024144919196e-01
9.997074376313320743e-01
3.842129662928465061e-04
3.845909302163922792e-04
3.855665186931856261e-04
3.852653671752328504e-04
9.945342538722017345e-01
9.992771148334007592e-01
9.951599947224867293e-01
9.828103546639953558e-01
9.996796043347898619e-01
9.996840410091284435e-01
9.997999064080301812e-01
9.997947551390140575e-01
3.363815479986948225e-03
2.293186969987573709e-01
1.419512193021339463e-01
4.068619991108686973e-04
3.951381922065052795e-04
3.884324528701041802e-04
3.954549901372824924e-04
1.065384832201764480e-03
9.989686760318775560e-01
9.998051290248424205e-01
9.998097310297744400e-01
9.997923144956553099e-01
6.037554887873348292e-02
1.604183495005530183e-03
4.085694543514534899e-02
3.929231635384080601e-01
4.102286160737778791e-04
3.860000576245792119e-04
3.893349832000022855e-04
3.869267793003513568e-04
7.234046906161972768e-01
8.614891037108387550e-01
2.757315864826418439e-01
1.387316704437398240e-01
3.839019452159193923e-04
3.859682893856750249e-04
4.005465748848374848e-04
3.877054828747619471e-04
3.868241480502456961e-04
3.916783625996896534e-04
4.045069015890648593e-04
3.875534007134143893e-04
9.907823767462757836e-01
7.230294784011012110e-01
9.933003567152708380e-01
9.995777039260860253e-01
9.998338224909096850e-01
9.998336320875693684e-01
9.998297014323759280e-01
9.952788720791511112e-01
3.935095841885937699e-04
3.875052957894078976e-04
2.788975893371222446e-03
7.584856223221433935e-02
1.382020032136291043e-01
1.372756432841889807e-01
8.329196040831401415e-01
8.357795278938139338e-01
4.908597481947107009e-03
2.724040063101562104e-01
7.272427035137032370e-01
2.723546993489626700e-01
8.569444465478903705e-01
9.997523138211735771e-01
9.997577711724900951e-01
8.569530902834368025e-01
3.855767515947525225e-04
3.852288116277026464e-04
3.849705519583800388e-04
3.855767636375927176e-04
9.998579157474758450e-01
9.998412470365981575e-01
9.998440404493567080e-01
9.998624230406951696e-01
9.554908358457986362e-01
7.068467857925300191e-01
2.328282054467176732e-01
6.128163917817273099e-01
8.816728493593549709e-01
9.662506756488148385e-01
9.998028000888597999e-01
9.998063586004189984e-01
3.894682661033976910e-04
3.911049904920282688e-04
3.958361149945941381e-04
3.933130385551691552e-04
1.431954565477887575e-01
4.242163382620129557e-04
4.239626790543661269e-04
1.431931347377402852e-01
1.433286936110405307e-01
8.571360735641643247e-01
8.571295747141769450e-01
1.433203962864441627e-01
3.853391061513999037e-04
3.865469320272047989e-04
3.852194593049806720e-04
3.838494475339486651e-04
3.845423439311828283e-04
3.838048728398138400e-04
3.831892081600528138e-04
3.834326047521767326e-04
4.011339494887327241e-04
4.912906865025750552e-03
4.104915051418869484e-04
4.124004537393138035e-04
9.997931369993585671e-01
9.997951299514578061e-01
9.998590829502941313e-01
9.998463952960009449e-01
9.998554467460603057e-01
9.998686601984743128e-01
9.998710705231403928e-01
9.998571245771444849e-01
9.998013749506742265e-01
9.998114016753237854e-01
9.997993039582032671e-01
9.998138302719872250e-01
3.388635772699267936e-03
2.319620776782925220e-01
5.728616161773586457e-01
9.364325638544619690e-02
9.993957143251837039e-01
9.994351592240992010e-01
9.500502865465365598e-01
8.593493351295171667e-01
3.835431387119663622e-04
3.857561282226529384e-04
3.838393775688743546e-04
3.831704599177415379e-04
3.867396913395646819e-04
3.977575851468179830e-04
3.847192786219783543e-04
3.835520474908557065e-04
3.831168653633753815e-04
3.834226568986798364e-04
3.846740340818322426e-04
3.883149696312647209e-04
3.852399228208230149e-04
3.855878442833490230e-04
3.855878452789119758e-04
3.855767423814169159e-04
9.996289930435957594e-01
8.551911604969727465e-01
9.014900574686187662e-01
9.997894847882659031e-01
9.997311127997835500e-01
9.996799146537831415e-01
9.997370432389842687e-01
9.997618233612927119e-01
9.998510008675426386e-01
9.998692041374263040e-01
9.998662625147128891e-01
9.998474070578687867e-01
3.867194909025160605e-04
3.827019650270488253e-04
3.818910808807649557e-04
3.837584935839741425e-04
9.998146944868062658e-01
9.998081663028075550e-01
9.990474119450408752e-01
9.722430276986443465e-01
9.996858922669389358e-01
9.995386621742590183e-01
9.995615496926850696e-01
9.996979442574812635e-01
9.543479850127429831e-01
9.958380824763505279e-01
9.983673895983883328e-01
9.988669991169656370e-01
3.830728986990835565e-04
3.830729053404562296e-04
3.821985840486153405e-04
3.821879250999729496e-04
9.463022910548085642e-01
9.997355188114115387e-01
9.997242090134469406e-01
8.601035168707794609e-01
9.998392761477243873e-01
8.620471088004530991e-01
7.651632169946620543e-01
9.966921845480499753e-01
8.844439940171741066e-01
7.986267125119301813e-01
3.051359941438012702e-01
4.176394189286873893e-01
3.831093121048972862e-04
3.822165564307051155e-04
3.824001902447796987e-04
3.831127465645136742e-04
4.272213822245503312e-04
4.178992245303188757e-04
3.889192864214356085e-04
3.909217848377912396e-04
8.565684257834221826e-01
1.430545100506559753e-01
1.430587959907048956e-01
8.566032428934209353e-01
6.589753212327299492e-01
9.615564752288484618e-01
9.148302348686251362e-01
4.232408839239698572e-01
3.948514162134385426e-04
3.869363195569417227e-04
3.912486300327143863e-04
4.131008210571269221e-04
3.851415599269634961e-04
4.031240948385067698e-04
4.242465733280396966e-04
3.873183378465383910e-04
8.571103314083038383e-01
9.998159669266361016e-01
9.998179207301589599e-01
8.571049280450772079e-01
7.276698907595220422e-01
9.940646222496496431e-01
9.056092212124836616e-01
9.934096925359731101e-01
2.635568190237309039e-01
4.436161410868322101e-03
1.390601009211631656e-01
6.790603568965476455e-01
4.210713564753282845e-01
7.195532357310808758e-01
9.814768433287105465e-01
9.088038767499493353e-01
1.431858669752880120e-01
1.431885993802924362e-01
4.167568943994514794e-04
4.164803374573378407e-04
9.997925165935100944e-01
9.998068362672306586e-01
9.998105535140667799e-01
9.997971730899352094e-01
3.836093287298121763e-04
3.831809392717018124e-04
3.831914673660341227e-04
3.872965229604252626e-04
3.832560827241110403e-04
3.820361948658296757e-04
3.820361877508210067e-04
3.832560756473249973e-04
3.946475544112676317e-04
4.055061370277675812e-04
3.870489624294164068e-04
3.859666742985753745e-04
4.019404855146864420e-04
4.167840046053087472e-03
4.081362725865680333e-04
3.977333462664483436e-04
9.949698318979710576e-01
9.995355909149609142e-01
9.950067893342824377e-01
7.272857000762248392e-01
6.601208971763763422e-01
9.763736649191392392e-01
7.448890533382067636e-01
2.542301990043076554e-01
1.430754504020813889e-01
1.430804759972947315e-01
8.566912979295429054e-01
8.566753775708630947e-01
9.997964708161833913e-01
9.997946192476151461e-01
9.998127077430026821e-01
9.998076217634592755e-01
9.998983749743097782e-01